<LesHouchesEvents version="3.0">
<header>
<!--
#*********************************************************************
#                                                                    *
#                        MadGraph5_aMC@NLO                           *
#                                                                    *
#                           Going Beyond                             *
#                                                                    *
#                   http://madgraph.hep.uiuc.edu                     *
#                   http://madgraph.phys.ucl.ac.be                   *
#                   http://amcatnlo.cern.ch                          *
#                                                                    *
#                     The MadGraph5_aMC@NLO team                     *
#                                                                    *
#....................................................................*
#                                                                    *
# This file contains all the information necessary to reproduce      *
# the events generated:                                              *
#                                                                    *
# 1. software version                                                *
# 2. proc_card          : code generation info including model       *
# 3. param_card         : model primary parameters in the LH format  *
# 4. run_card           : running parameters (collider and cuts)     *
# 5. pythia_card        : present only if pythia has been run        *
# 6. pgs_card           : present only if pgs has been run           *
# 7. delphes_cards      : present only if delphes has been run       *
#                                                                    *
#                                                                    *
#*********************************************************************
-->
<MGVersion>
3.4.1
</MGVersion>
<MG5ProcCard>
<![CDATA[
#************************************************************
#*                     MadGraph5_aMC@NLO                    *
#*                                                          *
#*                *                       *                 *
#*                  *        * *        *                   *
#*                    * * * * 5 * * * *                     *
#*                  *        * *        *                   *
#*                *                       *                 *
#*                                                          *
#*                                                          *
#*         VERSION 3.4.1                 2022-09-01         *
[1;31m#*                                                          *[1;0m
[1;31m#*          WARNING: UNKNOWN DEVELOPMENT VERSION.           *[1;0m
[1;31m#*            WARNING: DO NOT USE FOR PRODUCTION            *[1;0m
[1;31m#*                                                          *[1;0m
#*                                                          *
#*    The MadGraph5_aMC@NLO Development Team - Find us at   *
#*    https://server06.fynu.ucl.ac.be/projects/madgraph     *
#*                                                          *
#************************************************************
#*                                                          *
#*               Command File for MadGraph5_aMC@NLO         *
#*                                                          *
#*     run as ./bin/mg5_aMC  filename                       *
#*                                                          *
#************************************************************
set group_subprocesses Auto
set ignore_six_quark_processes False
set low_mem_multicore_nlo_generation False
set complex_mass_scheme False
set include_lepton_initiated_processes False
set gauge unitary
set loop_optimized_output True
set loop_color_flows False
set max_npoint_for_channel 0
set default_unset_couplings 99
set max_t_for_channel 99
set zerowidth_tchannel True
set nlo_mixed_expansion True
import model sm
define p = g u c d s u~ c~ d~ s~
define j = g u c d s u~ c~ d~ s~
define l+ = e+ mu+
define l- = e- mu-
define vl = ve vm vt
define vl~ = ve~ vm~ vt~
generate g g > t t~ g g
output
]]>
</MG5ProcCard>
<slha>
######################################################################
## PARAM_CARD AUTOMATICALY GENERATED BY MG5                       ####
######################################################################
###################################
## INFORMATION FOR MASS
###################################
BLOCK MASS # 
      5 4.700000e+00 # mb
      6 1.730000e+02 # mt
      15 1.777000e+00 # mta
      23 9.118800e+01 # mz
      25 1.250000e+02 # mh
      1 0.000000e+00 # d : 0.0
      2 0.000000e+00 # u : 0.0
      3 0.000000e+00 # s : 0.0
      4 0.000000e+00 # c : 0.0
      11 0.000000e+00 # e- : 0.0
      12 0.000000e+00 # ve : 0.0
      13 0.000000e+00 # mu- : 0.0
      14 0.000000e+00 # vm : 0.0
      16 0.000000e+00 # vt : 0.0
      21 0.000000e+00 # g : 0.0
      22 0.000000e+00 # a : 0.0
      24 8.041900e+01 # w+ : cmath.sqrt(mz__exp__2/2. + cmath.sqrt(mz__exp__4/4. - (aew*cmath.pi*mz__exp__2)/(gf*sqrt__2)))
###################################
## INFORMATION FOR SMINPUTS
###################################
BLOCK SMINPUTS # 
      1 1.325070e+02 # aewm1
      2 1.166390e-05 # gf
      3 1.300000e-01 # as (note that parameter not used if you use a pdf set)
###################################
## INFORMATION FOR YUKAWA
###################################
BLOCK YUKAWA # 
      5 4.700000e+00 # ymb
      6 1.730000e+02 # ymt
      15 1.777000e+00 # ymtau
###################################
## INFORMATION FOR DECAY
###################################
DECAY 6 1.491500e+00 # wt
DECAY 23 2.441404e+00 # wz
DECAY 24 2.047600e+00 # ww
DECAY 25 6.382339e-03 # wh
DECAY 1 0.000000e+00 # d : 0.0
DECAY 2 0.000000e+00 # u : 0.0
DECAY 3 0.000000e+00 # s : 0.0
DECAY 4 0.000000e+00 # c : 0.0
DECAY 5 0.000000e+00 # b : 0.0
DECAY 11 0.000000e+00 # e- : 0.0
DECAY 12 0.000000e+00 # ve : 0.0
DECAY 13 0.000000e+00 # mu- : 0.0
DECAY 14 0.000000e+00 # vm : 0.0
DECAY 15 0.000000e+00 # ta- : 0.0
DECAY 16 0.000000e+00 # vt : 0.0
DECAY 21 0.000000e+00 # g : 0.0
DECAY 22 0.000000e+00 # a : 0.0
</slha>
<MGGenerationInfo>
#  Number of Events        :       5
#  Integrated weight (pb)  :       251.87951705430004
</MGGenerationInfo>
</header>
<init>
2212 2212 6.500000e+03 6.500000e+03 0 0 247000 247000 -4 1
2.518795e+02 2.880876e+00 2.518795e+02 1
<generator name='MadGraph5_aMC@NLO' version='3.4.1'>please cite 1405.0301 </generator>
</init>
<event>
 6      1 +2.5187952e+02 2.32581700e+02 7.54677100e-03 1.12483600e-01
       21 -1    0    0  501  502 +0.0000000000e+00 +0.0000000000e+00 +1.7544800366e+03 1.7544800366e+03 0.0000000000e+00 0.0000e+00 1.0000e+00
       21 -1    0    0  505  503 -0.0000000000e+00 -0.0000000000e+00 -1.9995120819e+02 1.9995120819e+02 0.0000000000e+00 0.0000e+00 -1.0000e+00
        6  1    1    2  501    0 -4.9893149348e+01 -9.8917723297e+01 +9.0691719235e+02 9.2989345418e+02 1.7300000000e+02 0.0000e+00 -1.0000e+00
       -6  1    1    2    0  503 +4.9694950795e+01 +1.2130040683e+02 +2.0724149523e+02 3.0010233950e+02 1.7300000000e+02 0.0000e+00 1.0000e+00
       21  1    1    2  504  502 +6.1666769755e+01 -1.1009920583e+02 +5.5405285562e+02 5.6824219523e+02 0.0000000000e+00 0.0000e+00 1.0000e+00
       21  1    1    2  505  504 -6.1468571202e+01 +8.7716522302e+01 -1.1368271481e+02 1.5619325587e+02 0.0000000000e+00 0.0000e+00 -1.0000e+00
<mgrwt>
<rscale>  4 0.23258165E+03</rscale>
<asrwt>0</asrwt>
<pdfrwt beam="1">  1       21 0.26992000E+00 0.23258165E+03</pdfrwt>
<pdfrwt beam="2">  1       21 0.30761725E-01 0.23258165E+03</pdfrwt>
<totfact> 0.49097666E+02</totfact>
</mgrwt>
</event>
<event>
 6      1 +2.5187952e+02 1.85448200e+02 7.54677100e-03 1.16263200e-01
       21 -1    0    0  501  502 +0.0000000000e+00 +0.0000000000e+00 +1.2469273013e+02 1.2469273013e+02 0.0000000000e+00 0.0000e+00 -1.0000e+00
       21 -1    0    0  505  503 -0.0000000000e+00 -0.0000000000e+00 -1.2787762386e+03 1.2787762386e+03 0.0000000000e+00 0.0000e+00 -1.0000e+00
        6  1    1    2  501    0 -4.4712461696e+01 -4.5739321883e+01 -1.4346810435e+02 2.3367367580e+02 1.7300000000e+02 0.0000e+00 -1.0000e+00
       -6  1    1    2    0  504 -2.9438030671e-01 +8.0523384607e+01 -6.1819175754e+02 6.4697306839e+02 1.7300000000e+02 0.0000e+00 -1.0000e+00
       21  1    1    2  504  503 +1.7649971443e+01 -1.5934829660e+01 -4.5305880805e+02 4.5368240416e+02 0.0000000000e+00 0.0000e+00 1.0000e+00
       21  1    1    2  505  502 +2.7356870559e+01 -1.8849233064e+01 +6.0635161485e+01 6.9139820380e+01 0.0000000000e+00 0.0000e+00 1.0000e+00
<mgrwt>
<rscale>  4 0.18544823E+03</rscale>
<asrwt>0</asrwt>
<pdfrwt beam="1">  1       21 0.19183499E-01 0.18544823E+03</pdfrwt>
<pdfrwt beam="2">  1       21 0.19673479E+00 0.18544823E+03</pdfrwt>
<totfact> 0.35410291E+03</totfact>
</mgrwt>
</event>
<event>
 6      1 +2.5187952e+02 2.16620300e+02 7.54677100e-03 1.13642800e-01
       21 -1    0    0  505  502 +0.0000000000e+00 +0.0000000000e+00 +1.0902531060e+03 1.0902531060e+03 0.0000000000e+00 0.0000e+00 1.0000e+00
       21 -1    0    0  504  503 -0.0000000000e+00 -0.0000000000e+00 -1.0957460262e+03 1.0957460262e+03 0.0000000000e+00 0.0000e+00 1.0000e+00
        6  1    1    2  501    0 -7.6037088628e+01 -9.2245035710e+01 +6.2679630787e+02 6.6113039336e+02 1.7300000000e+02 0.0000e+00 1.0000e+00
       -6  1    1    2    0  503 +1.2791132383e+02 +1.1592970077e+02 +2.9715925426e+02 3.8475138035e+02 1.7300000000e+02 0.0000e+00 1.0000e+00
       21  1    1    2  504  502 -7.3823582050e+01 -1.7945837721e+01 -1.0321487474e+03 1.0349410665e+03 0.0000000000e+00 0.0000e+00 1.0000e+00
       21  1    1    2  505  501 +2.1949346848e+01 -5.7388273411e+00 +1.0270026502e+02 1.0517629202e+02 0.0000000000e+00 0.0000e+00 1.0000e+00
<mgrwt>
<rscale>  4 0.21662034E+03</rscale>
<asrwt>0</asrwt>
<pdfrwt beam="1">  1       21 0.16773125E+00 0.21662034E+03</pdfrwt>
<pdfrwt beam="2">  1       21 0.16857631E+00 0.21662034E+03</pdfrwt>
<totfact> 0.46656512E+01</totfact>
</mgrwt>
</event>
<event>
 6      1 +2.5187952e+02 1.89158000e+02 7.54677100e-03 1.15922300e-01
       21 -1    0    0  504  502 +0.0000000000e+00 +0.0000000000e+00 +4.2998405110e+02 4.2998405110e+02 0.0000000000e+00 0.0000e+00 1.0000e+00
       21 -1    0    0  501  503 -0.0000000000e+00 -0.0000000000e+00 -8.8920207271e+02 8.8920207271e+02 0.0000000000e+00 0.0000e+00 1.0000e+00
        6  1    1    2  501    0 -2.3394271166e+01 +6.4584351024e+01 -6.2561199462e+02 6.5271571004e+02 1.7300000000e+02 0.0000e+00 1.0000e+00
       -6  1    1    2    0  505 +6.9439074877e+01 -1.3200664610e+02 -5.6306185541e+01 2.3525927455e+02 1.7300000000e+02 0.0000e+00 1.0000e+00
       21  1    1    2  504  503 +3.7138747534e+01 +1.8302165557e+00 -9.1962503217e+01 9.9195454830e+01 0.0000000000e+00 0.0000e+00 -1.0000e+00
       21  1    1    2  505  502 -8.3183551245e+01 +6.5592078517e+01 +3.1466266177e+02 3.3201568438e+02 0.0000000000e+00 0.0000e+00 1.0000e+00
<mgrwt>
<rscale>  4 0.18915796E+03</rscale>
<asrwt>0</asrwt>
<pdfrwt beam="1">  1       21 0.66151392E-01 0.18915796E+03</pdfrwt>
<pdfrwt beam="2">  1       21 0.13680032E+00 0.18915796E+03</pdfrwt>
<totfact> 0.79969350E+02</totfact>
</mgrwt>
</event>
<event>
 6      1 +2.5187952e+02 2.22464300e+02 7.54677100e-03 1.13205900e-01
       21 -1    0    0  504  502 +0.0000000000e+00 +0.0000000000e+00 +4.4756911094e+02 4.4756911094e+02 0.0000000000e+00 0.0000e+00 1.0000e+00
       21 -1    0    0  501  503 -0.0000000000e+00 -0.0000000000e+00 -1.4812091784e+02 1.4812091784e+02 0.0000000000e+00 0.0000e+00 1.0000e+00
        6  1    1    2  501    0 -1.2804263544e+02 +7.4531971144e+00 +8.1971817079e+01 2.3043186723e+02 1.7300000000e+02 0.0000e+00 1.0000e+00
       -6  1    1    2    0  502 +1.4775463934e+02 +6.1258644004e+00 +2.1155811000e+02 3.1073267219e+02 1.7300000000e+02 0.0000e+00 1.0000e+00
       21  1    1    2  504  505 +3.6164037278e-01 -2.4582789408e+01 +1.6187311213e+01 2.9435919607e+01 0.0000000000e+00 0.0000e+00 1.0000e+00
       21  1    1    2  505  503 -2.0073644270e+01 +1.1003727893e+01 -1.0269045184e+01 2.5089569762e+01 0.0000000000e+00 0.0000e+00 1.0000e+00
<mgrwt>
<rscale>  4 0.22246428E+03</rscale>
<asrwt>0</asrwt>
<pdfrwt beam="1">  1       21 0.68856786E-01 0.22246428E+03</pdfrwt>
<pdfrwt beam="2">  1       21 0.22787834E-01 0.22246428E+03</pdfrwt>
<totfact> 0.34168530E+04</totfact>
</mgrwt>
</event>
</LesHouchesEvents>
